# LAMMPS data file written by OVITO Basic 3.2.1
50400 atoms
2 atom types
-158.145141105 158.145141105 xlo xhi
-44.9999989875 44.9999989875 ylo yhi
-17.1063246 17.1063246 zlo zhi

Atoms  # atomic

1 2 -148.14500427 -5.4854e-04 -15.68300915
2 2 -145.67599487 -0.17839824 17.10450172
3 2 -143.20700073 -0.17840773 15.67892075
4 2 -148.14500427 -0.17838906 15.67898273
5 2 -146.49891663 2.14946103 15.67380619
6 2 -148.14500427 -0.17838906 -9.98047733
7 2 -145.67599487 -0.17839824 -14.25704861
8 2 -145.67599487 -0.17839824 -11.40604782
9 2 -143.20700073 -0.17840773 -12.83157921
10 2 -148.14500427 -0.17838906 -12.83151722
11 2 -146.49891663 2.14946103 -12.83669376
12 2 -140.73800659 -0.17841756 17.10443687
13 2 -140.73800659 -0.17841756 -14.25711346
14 2 -138.26899719 -0.17842777 -15.68274593
15 2 -143.20700073 -0.17840773 -15.68267918
16 2 -144.02992249 2.14945173 17.09923744
17 2 -144.02992249 2.14945173 -14.26231289
18 2 -141.56092834 2.1494422 -15.68803501
19 2 -146.49891663 2.14946103 -15.68779373
20 2 -147.32185364 4.47731876 17.09433556
21 2 -147.32185364 4.47731876 -14.26721478
22 2 -144.85284424 4.4773097 -15.6930151
23 2 -148.14479065 6.80526447 -15.69771194
24 2 -135.80000305 -0.17843837 17.10436821
25 1 -133.31700134 -0.1130691 15.67862129
26 2 -138.26899719 -0.17842777 15.67885399
27 2 -139.09191895 2.14943242 17.09898758
28 2 -136.62290955 2.14942217 15.67330647
29 2 -141.56092834 2.1494422 15.67356491
30 2 -142.3838501 4.47730017 17.09392548
31 2 -139.91482544 4.47729063 15.66816139
32 2 -144.85284424 4.4773097 15.66858482
33 2 -145.67576599 6.80525541 17.0891571
34 2 -143.20677185 6.80524635 15.66331863
35 2 -148.14479065 6.80526447 15.66388702
36 2 -146.498703 9.13310909 15.65875435
37 2 -148.14500427 -0.17838906 -4.27835751
38 2 -145.67599487 -0.17839824 -8.55496788
39 2 -145.67599487 -0.17839824 -5.70392799
40 2 -143.20700073 -0.17840773 -7.12949944
41 2 -148.14500427 -0.17838906 -7.12943745
42 2 -146.49891663 2.14946103 -7.13461399
43 2 -140.73800659 -0.17841756 -11.40611267
44 2 -140.73800659 -0.17841756 -8.55503273
45 2 -138.26899719 -0.17842777 -9.98060608
46 2 -143.20700073 -0.17840773 -9.98053932
47 2 -144.02992249 2.14945173 -11.4113121
48 2 -144.02992249 2.14945173 -8.56023312
49 2 -141.56092834 2.1494422 -9.98589516
50 2 -146.49891663 2.14946103 -9.98565388
51 2 -147.32185364 4.47731876 -11.41621399
52 2 -147.32185364 4.47731876 -8.56513405
53 2 -144.85284424 4.4773097 -9.99087524
54 2 -148.14479065 6.80526447 -9.99557304
55 2 -135.80000305 -0.17843837 -14.25718212
56 2 -135.80000305 -0.17843837 -11.40618134
57 1 -133.31700134 -0.1130681 -12.83187866
58 2 -138.26899719 -0.17842777 -12.83164597
59 2 -139.09191895 2.14943242 -14.26256275
60 2 -139.09191895 2.14943242 -11.41156197
61 2 -136.62290955 2.14942217 -12.83719349
62 2 -141.56092834 2.1494422 -12.83693504
63 2 -142.3838501 4.47730017 -14.2676239
64 2 -142.3838501 4.47730017 -11.41662312
65 2 -139.91482544 4.47729063 -12.84233856
66 2 -144.85284424 4.4773097 -12.84191513
67 2 -145.67576599 6.80525541 -14.27239323
68 2 -145.67576599 6.80525541 -11.42139244
69 2 -143.20677185 6.80524635 -12.84718132
70 2 -148.14479065 6.80526447 -12.84661293
71 2 -146.498703 9.13310909 -12.85174561
72 1 -130.84199524 -0.10110547 17.10409927
73 1 -130.84199524 -0.10110547 -14.2574501
74 1 -128.37199402 -0.09649221 -15.68310356
75 1 -133.31700134 -0.1130681 -15.68297863
76 1 -134.15591431 2.18195152 17.09864235
77 1 -134.15591431 2.18195152 -14.26290894
78 1 -131.6769104 2.20937061 -15.68871784
79 2 -136.62290955 2.14942217 -15.68829346
80 2 -137.4458313 4.47728062 17.09348869
81 2 -137.4458313 4.47728062 -14.26806259
82 1 -134.97781372 4.49271011 -15.69392776
83 2 -139.91482544 4.47729063 -15.69343853
84 2 -140.73776245 6.80523682 17.08856964
85 2 -140.73776245 6.80523682 -14.27298069
86 2 -138.26873779 6.80522728 -15.69888878
87 2 -143.20677185 6.80524635 -15.69828129
88 2 -144.0296936 9.13310051 17.0839386
89 2 -144.0296936 9.13310051 -14.27761269
90 2 -141.5606842 9.13309097 -15.70359039
91 2 -146.498703 9.13310909 -15.70284557
92 2 -147.32164001 11.46096325 17.07956886
93 2 -147.32164001 11.46096325 -14.28198051
94 2 -144.85263062 11.46095371 -15.70801926
95 2 -148.14457703 13.788764 -15.71219826
96 1 -125.90399933 -0.09405032 17.10399437
97 1 -123.43699646 -0.09254384 15.67839336
98 1 -128.37199402 -0.09649191 15.67849541
99 1 -129.20289612 2.22011924 17.09825516
100 1 -126.7328949 2.22535753 15.6725359
101 1 -131.6769104 2.20937061 15.67288208
102 1 -132.5078125 4.51693964 17.09292221
103 1 -130.03379822 4.53409863 15.66708183
104 1 -134.97781372 4.49271011 15.6676712
105 2 -135.79974365 6.80521679 17.08794022
106 1 -133.3327179 6.83092642 15.66199875
107 2 -138.26873779 6.80522728 15.66271019
108 2 -139.09165955 9.13308144 17.08316803
109 2 -136.62266541 9.13307095 15.65721416
110 2 -141.5606842 9.13309097 15.65801048
111 2 -142.38362122 11.46094418 17.07867813
112 2 -139.91459656 11.46093464 15.65265846
113 2 -144.85263062 11.46095371 15.65358067
114 2 -145.67556763 13.78885555 17.07444382
115 2 -143.20655823 13.78884602 15.64836884
116 2 -148.14457703 13.78886414 15.64940166
117 2 -146.49850464 16.11675453 15.6443224
118 2 -148.14500427 -0.17838906 1.42372251
119 2 -145.67599487 -0.17839824 -2.85288811
120 2 -145.67599487 -0.17839824 -0.00180817
121 2 -143.20700073 -0.17840773 -1.42737985
122 2 -148.14500427 -0.17838906 -1.42731738
123 2 -146.49891663 2.14946103 -1.43249393
124 2 -140.73800659 -0.17841756 -5.70399237
125 2 -140.73800659 -0.17841756 -2.85295248
126 2 -138.26899719 -0.17842777 -4.27848625
127 2 -143.20700073 -0.17840773 -4.27841949
128 2 -144.02992249 2.14945173 -5.70919228
129 2 -144.02992249 2.14945173 -2.85815263
130 2 -141.56092834 2.1494422 -4.28377533
131 2 -146.49891663 2.14946103 -4.28353405
132 2 -147.32185364 4.47731876 -5.71409416
133 2 -147.32185364 4.47731876 -2.86305428
134 2 -144.85284424 4.4773097 -4.28875542
135 2 -148.14479065 6.80526447 -4.29345274
136 2 -135.80000305 -0.17843837 -8.55510235
137 2 -135.80000305 -0.17843837 -5.70406151
138 1 -133.31700134 -0.1130691 -7.1297884
139 2 -138.26899719 -0.17842777 -7.12956619
140 2 -139.09191895 2.14943242 -8.56048203
141 2 -139.09191895 2.14943242 -5.70944214
142 2 -136.62290955 2.14942217 -7.13511372
143 2 -141.56092834 2.1494422 -7.13485527
144 2 -142.3838501 4.47730017 -8.56554413
145 2 -142.3838501 4.47730017 -5.71450329
146 2 -139.91482544 4.47729063 -7.14025879
147 2 -144.85284424 4.4773097 -7.13983536
148 2 -145.67576599 6.80525541 -8.5703125
149 2 -145.67576599 6.80525541 -5.71927261
150 2 -143.20677185 6.80524635 -7.14510155
151 2 -148.14479065 6.80526447 -7.14453268
152 2 -146.498703 9.13310909 -7.14966583
153 1 -130.84199524 -0.10110547 -11.40643978
154 1 -130.84199524 -0.10110547 -8.5553894
155 1 -128.37199402 -0.09649191 -9.98096466
156 1 -133.31700134 -0.1130691 -9.98083878
157 1 -134.15591431 2.18195152 -11.41189861
158 1 -134.15591431 2.18195152 -8.56084824
159 1 -131.6769104 2.20937061 -9.98657799
160 2 -136.62290955 2.14942217 -9.9861536
161 2 -137.4458313 4.47728062 -11.41706085
162 2 -137.4458313 4.47728062 -8.56598186
163 1 -134.97781372 4.49271011 -9.99178886
164 2 -139.91482544 4.47729063 -9.99129868
165 2 -140.73776245 6.80523682 -11.4219799
166 2 -140.73776245 6.80523682 -8.57089996
167 2 -138.26873779 6.80522728 -9.99674988
168 2 -143.20677185 6.80524635 -9.99614143
169 2 -144.0296936 9.13310051 -11.4266119
170 2 -144.0296936 9.13310051 -8.57553196
171 2 -141.5606842 9.13309097 -10.00144958
172 2 -146.498703 9.13310909 -10.00070572
173 2 -147.32164001 11.46096325 -11.43098068
174 2 -147.32164001 11.46096325 -8.57990074
175 2 -144.85263062 11.46095371 -10.0058794
176 2 -148.14457703 13.788764 -10.0100584
177 1 -125.90399933 -0.09405032 -14.25755692
178 1 -125.90399933 -0.09405021 -11.40654564
179 1 -123.43699646 -0.09254384 -12.83210659
180 1 -128.37199402 -0.09649191 -12.83200455
181 1 -129.20289612 2.22011924 -14.26329517
182 1 -129.20289612 2.22011924 -11.41228485
183 1 -126.7328949 2.22535753 -12.83796406
184 1 -131.6769104 2.20937061 -12.83761787
185 1 -132.5078125 4.51693964 -14.26862717
186 1 -132.5078125 4.51693964 -11.41761684
187 1 -130.03379822 4.53409863 -12.84341812
188 1 -134.97781372 4.49271011 -12.84282875
189 2 -135.79974365 6.80521679 -14.27361012
190 2 -135.79974365 6.80521679 -11.42260933
191 1 -133.3327179 6.83092642 -12.84850121
192 2 -138.26873779 6.80522728 -12.84778976
193 2 -139.09165955 9.13308144 -14.2783823
194 2 -139.09165955 9.13308144 -11.42738152
195 2 -136.62266541 9.13307095 -12.85328579
196 2 -141.5606842 9.13309097 -12.85248947
197 2 -142.38362122 11.46094418 -14.28287315
198 2 -142.38362122 11.46094418 -11.43187237
199 2 -139.91459656 11.46093464 -12.85784149
200 2 -144.85263062 11.46095371 -12.85691929
201 2 -145.67556763 13.78885555 -14.28710747
202 2 -145.67556763 13.78885555 -11.43610668
203 2 -143.20655823 13.78884602 -12.86213112
204 2 -148.14457703 13.78886414 -12.86109829
205 2 -146.49850464 16.11675453 -12.86617756
206 1 -120.96999359 -0.09152306 17.10389137
207 1 -120.96999359 -0.09152306 -14.25765896
208 1 -118.50299072 -0.09079547 -15.68331146
209 1 -123.43699646 -0.09254384 -15.68320656
210 1 -124.2638855 2.2283051 17.09791565
211 1 -124.2638855 2.2283051 -14.26363468
212 1 -121.79488373 2.23010254 -15.68940735
213 1 -126.7328949 2.22535753 -15.68906403
214 1 -127.56179047 4.54294682 17.0923481
215 1 -127.56179047 4.54294682 -14.26920128
216 1 -125.09078979 4.547925 -15.69508457
217 1 -130.03379822 4.53409863 -15.69451809
218 1 -130.86170959 6.84762526 17.08716202
219 1 -130.86170959 6.84762526 -14.27438736
220 1 -128.38970947 6.85944414 -15.7003746
221 1 -133.3327179 6.83092642 -15.69960117
222 1 -134.15664673 9.14746094 17.08231163
223 1 -134.15664673 9.14747047 -14.2792387
224 1 -131.68763733 9.16400909 -15.70531178
225 2 -136.62266541 9.13307095 -15.70438576
226 2 -137.44558716 11.46092415 17.07772255
227 2 -137.44558716 11.46092415 -14.28382683
228 1 -134.97857666 11.4681139 -15.70994377
229 2 -139.91459656 11.46093464 -15.70894146
230 2 -140.73754883 13.78873539 17.0733757
231 2 -140.73754883 13.78873539 -14.28817368
232 2 -138.26852417 13.7887249 -15.71433353
233 2 -143.20655823 13.78884602 -15.71323109
234 2 -144.02949524 16.116745 17.06928062
235 2 -144.02949524 16.116745 -14.29227066
236 2 -141.56048584 16.11673546 -15.71848106
237 2 -146.49850464 16.11675453 -15.71727753
238 2 -147.32145691 18.44455528 17.06541443
239 2 -147.32145691 18.44455528 -14.2961359
240 2 -144.85243225 18.44454575 -15.72239113
241 2 -148.14440918 20.77245331 -15.72608376
242 1 -116.03499603 -0.09026375 17.10378456
243 1 -113.56699371 -0.08987287 15.67817783
244 1 -118.50299072 -0.09079547 15.67828941
245 1 -119.32688141 2.23124909 17.0975647
246 1 -116.85887146 2.23199534 15.67182922
247 1 -121.79488373 2.23010254 15.67219257
248 1 -122.6217804 4.55089235 17.09177589
249 1 -120.15276337 4.55272961 15.66592789
250 1 -125.09078979 4.547925 15.66651535
251 1 -125.91868591 6.86653185 17.08638382
252 1 -123.44867706 6.87087965 15.66043568
253 1 -128.38970947 6.85944414 15.66122532
254 1 -129.21762085 9.17607784 17.08135796
255 1 -126.74660492 9.18470669 15.65531731
256 1 -131.68763733 9.16400909 15.65628815
257 1 -132.5115509 11.48230171 17.07665443
258 1 -130.0425415 11.49419022 15.65053749
259 1 -134.97857666 11.4681139 15.65165615
260 2 -135.79949951 13.78871441 17.07223511
261 1 -133.33348083 13.80310345 15.64605522
262 2 -138.26852417 13.7887249 15.64731598
263 2 -139.09146118 16.11672592 17.06803703
264 2 -136.62243652 16.11671448 15.64188385
265 2 -141.56048584 16.11673546 15.6431694
266 2 -142.38342285 18.4445343 17.06408119
267 2 -139.91439819 18.44452477 15.63788223
268 2 -144.85243225 18.44454575 15.63925934
269 2 -145.67538452 20.77244377 17.06034851
270 2 -143.20637512 20.77243233 15.6341095
271 2 -148.14440918 20.77245331 15.63556671
272 2 -146.49833679 23.10033989 15.63055038
273 2 -148.14500427 -0.17838906 7.12584209
274 2 -145.67599487 -0.17839824 2.84923172
275 2 -145.67599487 -0.17839824 5.70027208
276 2 -143.20700073 -0.17840773 4.27474022
277 2 -148.14500427 -0.17838906 4.27480221
278 2 -146.49891663 2.14946103 4.26962566
279 2 -140.73800659 -0.17841756 -0.00187266
280 2 -140.73800659 -0.17841756 2.84916735
281 2 -138.26899719 -0.17842777 1.42359328
282 2 -143.20700073 -0.17840773 1.42366004
283 2 -144.02992249 2.14945173 -0.00707269
284 2 -144.02992249 2.14945173 2.8439672
285 2 -141.56092834 2.1494422 1.41830456
286 2 -146.49891663 2.14946103 1.41854596
287 2 -147.32185364 4.47731876 -0.01197433
288 2 -147.32185364 4.47731876 2.83906555
289 2 -144.85284424 4.4773097 1.41332436
290 2 -148.14479065 6.80526447 1.40862703
291 2 -135.80000305 -0.17843837 -2.85302186
292 2 -135.80000305 -0.17843837 -0.00194192
293 1 -133.31700134 -0.1130691 -1.42767894
294 2 -138.26899719 -0.17842777 -1.4274466
295 2 -139.09191895 2.14943242 -2.85840225
296 2 -139.09191895 2.14943242 -0.00732231
297 2 -136.62290955 2.14942217 -1.43299389
298 2 -141.56092834 2.1494422 -1.43273532
299 2 -142.3838501 4.47730017 -2.86346364
300 2 -142.3838501 4.47730017 -0.0123837
301 2 -139.91482544 4.47729063 -1.43813872
302 2 -144.85284424 4.4773097 -1.43771553
303 2 -145.67576599 6.80525541 -2.86823249
304 2 -145.67576599 6.80525541 -0.01715255
305 2 -143.20677185 6.80524635 -1.44298148
306 2 -148.14479065 6.80526447 -1.44241285
307 2 -146.498703 9.13310909 -1.44754612
308 1 -130.84199524 -0.10110547 -5.70432949
309 1 -130.84199524 -0.10110547 -2.85327959
310 1 -128.37199402 -0.09649221 -4.27885437
311 1 -133.31700134 -0.1130691 -4.2787385
312 1 -134.15591431 2.18195152 -5.70978785
313 1 -134.15591431 2.18195152 -2.85873795
314 1 -131.6769104 2.20937061 -4.28447819
315 2 -136.62290955 2.14942217 -4.28403378
316 2 -137.4458313 4.47728062 -5.7149415
317 2 -137.4458313 4.47728062 -2.86390162
318 1 -134.97781372 4.49271011 -4.28968859
319 2 -139.91482544 4.47729063 -4.28917885
320 2 -140.73776245 6.80523682 -5.71986008
321 2 -140.73776245 6.80523682 -2.86882019
322 2 -138.26873779 6.80522728 -4.29462957
323 2 -143.20677185 6.80524635 -4.29402161
324 2 -144.0296936 9.13310051 -5.72449207
325 2 -144.0296936 9.13310051 -2.87345195
326 2 -141.5606842 9.13309097 -4.29933023
327 2 -146.498703 9.13310909 -4.29858589
328 2 -147.32164001 11.46096325 -5.72886038
329 2 -147.32164001 11.46096325 -2.87782049
330 2 -144.85263062 11.46095371 -4.3037591
331 2 -148.14457703 13.788764 -4.30793858
332 1 -125.90399933 -0.09405032 -8.55549622
333 1 -125.90399933 -0.09405041 -5.70443583
334 1 -123.43699646 -0.09254394 -7.13001633
335 1 -128.37199402 -0.09649201 -7.12991428
336 1 -129.20289612 2.22011924 -8.56123447
337 1 -129.20289612 2.22011924 -5.71017504
338 1 -126.7328949 2.22535753 -7.13587379
339 1 -131.6769104 2.20937061 -7.13552856
340 1 -132.5078125 4.51693964 -8.56656647
341 1 -132.5078125 4.51692963 -5.71550655
342 1 -130.03379822 4.53409863 -7.14132881
343 1 -134.97781372 4.49271011 -7.14073849
344 2 -135.79974365 6.80521679 -8.57153034
345 2 -135.79974365 6.80521679 -5.72048998
346 1 -133.3327179 6.83092642 -7.14641142
347 2 -138.26873779 6.80522728 -7.14570951
348 2 -139.09165955 9.13308144 -8.57630157
349 2 -139.09165955 9.13308144 -5.72526169
350 2 -136.62266541 9.13307095 -7.15120602
351 2 -141.5606842 9.13309097 -7.15041018
352 2 -142.38362122 11.46094418 -8.58079338
353 2 -142.38362122 11.46094418 -5.72975254
354 2 -139.91459656 11.46093464 -7.15576124
355 2 -144.85263062 11.46095371 -7.15483904
356 2 -145.67556763 13.78885555 -8.58502674
357 2 -145.67556763 13.78885555 -5.73398685
358 2 -143.20655823 13.78884602 -7.16005135
359 2 -148.14457703 13.78886414 -7.15901852
360 2 -146.49850464 16.11675453 -7.16409779
361 1 -120.96999359 -0.09152306 -11.40664864
362 1 -120.96999359 -0.09152316 -8.55559826
363 1 -118.50299072 -0.09079547 -9.98117065
364 1 -123.43699646 -0.09254384 -9.9810667
365 1 -124.2638855 2.2283051 -11.41262436
366 1 -124.2638855 2.2283051 -8.56157398
367 1 -121.79488373 2.23010254 -9.98726749
368 1 -126.7328949 2.22535753 -9.98692417
369 1 -127.56179047 4.54294682 -11.41819191
370 1 -127.56179047 4.54294682 -8.56714058
371 1 -125.09078979 4.547925 -9.99294472
372 1 -130.03379822 4.53409863 -9.99237823
373 1 -130.86170959 6.84762526 -11.42337704
374 1 -130.86170959 6.84762526 -8.57232666
375 1 -128.38970947 6.85944414 -9.99823475
376 1 -133.3327179 6.83092642 -9.99747181
377 1 -134.15664673 9.14747047 -11.42822838
378 1 -134.15664673 9.14746094 -8.577178
379 1 -131.68763733 9.16400909 -10.00318241
380 2 -136.62266541 9.13307095 -10.0022459
381 2 -137.44558716 11.46092415 -11.43282604
382 2 -137.44558716 11.46092415 -8.58174706
383 1 -134.97857666 11.4681139 -10.00781441
384 2 -139.91459656 11.46093464 -10.00680161
385 2 -140.73754883 13.78873539 -11.43717289
386 2 -140.73754883 13.78873539 -8.5860939
387 2 -138.26852417 13.7887249 -10.01219368
388 2 -143.20655823 13.78884602 -10.01109123
389 2 -144.02949524 16.116745 -11.44126987
390 2 -144.02949524 16.116745 -8.59018993
391 2 -141.56048584 16.11673546 -10.01634121
392 2 -146.49850464 16.11675453 -10.01513767
393 2 -147.32145691 18.44455528 -11.44513512
394 2 -147.32145691 18.44455528 -8.59405613
395 2 -144.85243225 18.44454575 -10.02025127
396 2 -148.14440918 20.77245331 -10.0239439
397 1 -116.03499603 -0.09026375 -14.25776672
398 1 -116.03499603 -0.09026375 -11.4067564
399 1 -113.56699371 -0.08987287 -12.83232212
400 1 -118.50299072 -0.09079547 -12.83221054
401 1 -119.32688141 2.23124909 -14.26398659
402 1 -119.32688141 2.23124909 -11.41297626
403 1 -116.85887146 2.23199534 -12.83867073
404 1 -121.79488373 2.23010254 -12.83830738
405 1 -122.6217804 4.55089235 -14.26977444
406 1 -122.6217804 4.55089235 -11.41876411
407 1 -120.15276337 4.55272961 -12.84457207
408 1 -125.09078979 4.547925 -12.8439846
409 1 -125.91868591 6.86653185 -14.27516556
410 1 -125.91868591 6.86653185 -11.42415619
411 1 -123.44867706 6.87087965 -12.85006428
412 1 -128.38970947 6.85944414 -12.84927464
413 1 -129.21762085 9.17607784 -14.28019333
414 1 -129.21762085 9.17607784 -11.42918205
415 1 -126.74660492 9.18470669 -12.85518265
416 1 -131.68763733 9.16400909 -12.85421181
417 1 -132.5115509 11.48230171 -14.28489685
418 1 -132.5115509 11.48230171 -11.43388653
419 1 -130.0425415 11.49419022 -12.85996246
420 1 -134.97857666 11.4681139 -12.8588438
421 2 -135.79949951 13.78881454 -14.28931427
422 2 -135.79949951 13.78881454 -11.43831348
423 1 -133.33348083 13.80310345 -12.86444473
424 2 -138.26852417 13.78882504 -12.86323357
425 2 -139.09146118 16.11672592 -14.29351425
426 2 -139.09146118 16.11672592 -11.44251347
427 2 -136.62243652 16.11671448 -12.86866665
428 2 -141.56048584 16.11673546 -12.8673811
429 2 -142.38342285 18.4445343 -14.29746914
430 2 -142.38342285 18.4445343 -11.44646835
431 2 -139.91439819 18.44452477 -12.87266731
432 2 -144.85243225 18.44454575 -12.87129116
433 2 -145.67538452 20.77244377 -14.30120087
434 2 -145.67538452 20.77244377 -11.45020008
435 2 -143.20637512 20.77243233 -12.87643909
436 2 -148.14440918 20.77245331 -12.87498379
437 2 -146.49833679 23.10033989 -12.87999916
438 1 -111.09999084 -0.08958833 17.10366821
439 1 -111.09999084 -0.08958833 -14.25788212
440 1 -108.63199615 -0.08938593 -15.68354225
441 1 -113.56699371 -0.08987287 -15.68342209
442 1 -114.39086151 2.23249078 17.09718704
443 1 -114.39086151 2.23249078 -14.26436424
444 1 -111.92285156 2.23280573 -15.69016361
445 1 -116.85887146 2.23199534 -15.6897707
446 1 -117.68475342 4.55387592 17.09116936
447 1 -117.68475342 4.55387592 -14.27038097
448 1 -115.21574402 4.55459213 -15.69629955
449 1 -120.15276337 4.55272961 -15.69567108
450 1 -120.97866058 6.87359667 17.0855751
451 1 -120.97866058 6.87359667 -14.27597523
452 1 -118.50965118 6.87530327 -15.70199871
453 1 -123.44867706 6.87087965 -15.70116425
454 1 -124.27558899 9.19033432 17.08036423
455 1 -124.27558899 9.19033432 -14.28118515
456 1 -121.80556488 9.19397163 -15.70730019
457 1 -126.74660492 9.18470669 -15.70628262
458 1 -127.5725174 11.50317955 17.0755043
459 1 -127.5725174 11.50317955 -14.28604507
460 1 -125.10150146 11.50966644 -15.71224213
461 1 -130.0425415 11.49419022 -15.71106339
462 1 -130.86546326 13.81389141 17.07095718
463 1 -130.86546326 13.81389141 -14.29059219
464 1 -128.39645386 13.82267952 -15.71685791
465 1 -133.33348083 13.80310345 -15.71554565
466 1 -134.15641785 16.125103 17.06668854
467 1 -134.15641785 16.125103 -14.29486084
468 1 -131.68940735 16.13509178 -15.72118187
469 2 -136.62243652 16.11671448 -15.71976662
470 2 -137.44538879 18.44451332 17.06265831
471 2 -137.44538879 18.44451332 -14.29889107
472 1 -134.97836304 18.44880104 -15.72524643
473 2 -139.91439819 18.44452477 -15.72376823
474 2 -140.73736572 20.77242279 17.05884743
475 2 -140.73736572 20.77242279 -14.3027029
476 2 -138.26832581 20.77241135 -15.72909069
477 2 -143.20637512 20.77243233 -15.72753906
478 2 -144.02932739 23.10033035 17.05525208
479 2 -144.02932739 23.10033035 -14.3062973
480 2 -141.56031799 23.10031891 -15.73271942
481 2 -146.49833679 23.10033989 -15.73109913
482 2 -147.32131958 25.42823601 17.0518589
483 2 -147.32131958 25.42823601 -14.30969238
484 2 -144.85227966 25.42822647 -15.73614407
485 2 -148.14427185 27.75603104 -15.73937988
486 1 -106.16398621 -0.08924792 17.10354233
487 1 -103.69498444 -0.08916087 15.67792702
488 1 -108.63199615 -0.08938593 15.67805767
489 1 -109.45484924 2.23301005 17.09677696
490 1 -106.98683929 2.23312354 15.67101002
491 1 -111.92285156 2.23280573 15.67143631
492 1 -112.74773407 4.55503702 17.09051704
493 1 -110.27871704 4.55528212 15.6646204
494 1 -115.21574402 4.55459213 15.66530037
495 1 -116.04063416 6.87636948 17.08471107
496 1 -113.57261658 6.87701464 15.65870476
497 1 -118.50965118 6.87530327 15.65960121
498 1 -119.3355484 9.19631863 17.07931519
499 1 -116.86653137 9.1978035 15.6532135
500 1 -121.80556488 9.19397163 15.65429974
501 1 -122.63148499 11.51405334 17.07429314
502 1 -120.16146088 11.51704025 15.64810753
503 1 -125.10150146 11.50966644 15.64935875
504 1 -125.9274292 13.82936668 17.06960678
505 1 -123.45740509 13.83425331 15.6433506
506 1 -128.39645386 13.82267952 15.64474297
507 1 -129.22036743 16.14327812 17.06522369
508 1 -126.75135803 16.14976501 15.63890648
509 1 -131.68940735 16.13509178 15.64041805
510 1 -132.51133728 18.45738983 17.06111145
511 1 -130.04431152 18.46497536 15.63474369
512 1 -134.97836304 18.44880104 15.63635254
513 2 -135.79931641 20.77239799 17.05724335
514 1 -133.33328247 20.78108597 15.63083458
515 2 -138.26832581 20.77241135 15.63255882
516 2 -139.09127808 23.10030746 17.05357933
517 2 -136.62226868 23.10029411 15.62720108
518 2 -141.56031799 23.10031891 15.62892914
519 2 -142.38327026 25.42821503 17.05012512
520 2 -139.91423035 25.42820168 15.62371826
521 2 -144.85227966 25.42822647 15.62550545
522 2 -145.67524719 27.75601959 17.04686356
523 2 -143.20622253 27.75600815 15.62042999
524 2 -148.14427185 27.75603104 15.62226868
525 2 -146.49821472 30.0840168 15.61732483
526 2 -148.14500427 -0.17838906 12.82798195
527 2 -145.67599487 -0.17839824 8.55135155
528 2 -145.67599487 -0.17839824 11.40235233
529 2 -143.20700073 -0.17840773 9.97681999
530 2 -148.14500427 -0.17838906 9.97688198
531 2 -146.49891663 2.14946103 9.97170544
532 2 -140.73800659 -0.17841756 5.70020771
533 2 -140.73800659 -0.17841756 8.5512867
534 2 -138.26899719 -0.17842777 7.12571335
535 2 -143.20700073 -0.17840773 7.12578011
536 2 -144.02992249 2.14945173 5.69500732
537 2 -144.02992249 2.14945173 8.54608727
538 2 -141.56092834 2.1494422 7.12042427
539 2 -146.49891663 2.14946103 7.12066555
540 2 -147.32185364 4.47731876 5.69010592
541 2 -147.32185364 4.47731876 8.54118538
542 2 -144.85284424 4.4773097 7.11544418
543 2 -148.14479065 6.80526447 7.11074686
544 2 -135.80000305 -0.17843837 2.84909797
545 2 -135.80000305 -0.17843837 5.70013809
546 1 -133.31700134 -0.1130691 4.27443123
547 2 -138.26899719 -0.17842777 4.27467346
548 2 -139.09191895 2.14943242 2.84371758
549 2 -139.09191895 2.14943242 5.69475794
550 2 -136.62290955 2.14942217 4.26912594
551 2 -141.56092834 2.1494422 4.26938438
552 2 -142.3838501 4.47730017 2.83865619
553 2 -142.3838501 4.47730017 5.68969631
554 2 -139.91482544 4.47729063 4.26398087
555 2 -144.85284424 4.4773097 4.2644043
556 2 -145.67576599 6.80525541 2.83388734
557 2 -145.67576599 6.80525541 5.68492794
558 2 -143.20677185 6.80524635 4.25913811
559 2 -148.14479065 6.80526447 4.25970697
560 2 -146.498703 9.13310909 4.25457382
561 1 -130.84199524 -0.10110547 -0.00221968
562 1 -130.84199524 -0.10110547 2.84883022
563 1 -128.37199402 -0.09649231 1.42324543
564 1 -133.31700134 -0.1130691 1.4233712
565 1 -134.15591431 2.18195152 -0.00767815
566 1 -134.15591431 2.18195152 2.84337187
567 1 -131.6769104 2.20937061 1.41763139
568 2 -136.62290955 2.14942217 1.418046
569 2 -137.4458313 4.47728062 -0.01282167
570 2 -137.4458313 4.47728062 2.83821821
571 1 -134.97781372 4.49271011 1.41243124
572 2 -139.91482544 4.47729063 1.41290116
573 2 -140.73776245 6.80523682 -0.01774025
574 2 -140.73776245 6.80523682 2.83329964
575 2 -138.26873779 6.80522728 1.4074502
576 2 -143.20677185 6.80524635 1.4080584
577 2 -144.0296936 9.13310051 -0.02237201
578 2 -144.0296936 9.13310051 2.82866788
579 2 -141.5606842 9.13309097 1.40274954
580 2 -146.498703 9.13310909 1.40349376
581 2 -147.32164001 11.46096325 -0.02674055
582 2 -147.32164001 11.46096325 2.82429934
583 2 -144.85263062 11.46095371 1.39832056
584 2 -148.14457703 13.788764 1.3941412
585 1 -125.90399933 -0.09405041 -2.85338593
586 1 -125.90399933 -0.09405052 -0.00232601
587 1 -123.43699646 -0.09254394 -1.42790711
588 1 -128.37199402 -0.09649241 -1.42780483
589 1 -129.20289612 2.22011924 -2.85912514
590 1 -129.20289612 2.22011924 -0.0080651
591 1 -126.7328949 2.22535753 -1.4337647
592 1 -131.6769104 2.20937061 -1.43341887
593 1 -132.5078125 4.51692963 -2.86445665
594 1 -132.5078125 4.51692963 -0.01339674
595 1 -130.03379822 4.53409863 -1.43921912
596 1 -134.97781372 4.49271011 -1.43862879
597 2 -135.79974365 6.80521679 -2.86945009
598 2 -135.79974365 6.80521679 -0.01837003
599 1 -133.3327179 6.83092642 -1.44430196
600 2 -138.26873779 6.80522728 -1.44358969
601 2 -139.09165955 9.13308144 -2.87422156
602 2 -139.09165955 9.13308144 -0.02314162
603 2 -136.62266541 9.13307095 -1.44908643
604 2 -141.5606842 9.13309097 -1.44829035
605 2 -142.38362122 11.46094418 -2.87871265
606 2 -142.38362122 11.46094418 -0.02763271
607 2 -139.91459656 11.46093464 -1.45364153
608 2 -144.85263062 11.46095371 -1.45271933
609 2 -145.67556763 13.78885555 -2.88294673
610 2 -145.67556763 13.78885555 -0.03186679
611 2 -143.20655823 13.78884602 -1.45793152
612 2 -148.14457703 13.78886414 -1.45689881
613 2 -146.49850464 16.11675453 -1.46197796
614 1 -120.96999359 -0.09152316 -5.70453835
615 1 -120.96999359 -0.09152316 -2.85348821
616 1 -118.50299072 -0.09079547 -4.27906132
617 1 -123.43699646 -0.09254394 -4.27895641
618 1 -124.2638855 2.2283051 -5.71051359
619 1 -124.2638855 2.2283051 -2.85946369
620 1 -121.79488373 2.23010254 -4.2851572
621 1 -126.7328949 2.22535753 -4.28481388
622 1 -127.56179047 4.54294682 -5.71608114
623 1 -127.56179047 4.54294682 -2.86503124
624 1 -125.09078979 4.547925 -4.29083443
625 1 -130.03379822 4.53409863 -4.2902689
626 1 -130.86170959 6.84762526 -5.72126675
627 1 -130.86170959 6.84762526 -2.87021685
628 1 -128.38970947 6.85944414 -4.29612446
629 1 -133.3327179 6.83092642 -4.29536152
630 1 -134.15664673 9.14745045 -5.72611809
631 1 -134.15664673 9.14745045 -2.87506819
632 1 -131.68763733 9.16399956 -4.30107164
633 2 -136.62266541 9.13307095 -4.30012608
634 2 -137.44558716 11.46092415 -5.73070621
635 2 -137.44558716 11.46092415 -2.87966633
636 1 -134.97857666 11.4681139 -4.30570412
637 2 -139.91459656 11.46093464 -4.3046813
638 2 -140.73754883 13.78873539 -5.73505306
639 2 -140.73754883 13.78873539 -2.88401341
640 2 -138.26852417 13.7887249 -4.31007385
641 2 -143.20655823 13.78884602 -4.30897141
642 2 -144.02949524 16.116745 -5.73915005
643 2 -144.02949524 16.116745 -2.88810992
644 2 -141.56048584 16.11673546 -4.31422138
645 2 -146.49850464 16.11675453 -4.31301785
646 2 -147.32145691 18.44455528 -5.74301577
647 2 -147.32145691 18.44455528 -2.89197588
648 2 -144.85243225 18.44454575 -4.31813145
649 2 -148.14440918 20.77245331 -4.32182407
650 1 -116.03499603 -0.09026375 -8.55570602
651 1 -116.03499603 -0.09026375 -5.70464611
652 1 -113.56699371 -0.08987287 -7.13023233
653 1 -118.50299072 -0.09079547 -7.13012123
654 1 -119.32688141 2.23124909 -8.56192589
655 1 -119.32688141 2.23124909 -5.71086597
656 1 -116.85887146 2.23199534 -7.13658142
657 1 -121.79488373 2.23010254 -7.13621712
658 1 -122.6217804 4.55089235 -8.56771374
659 1 -122.6217804 4.55089235 -5.71665382
660 1 -120.15276337 4.55272961 -7.1424818
661 1 -125.09078979 4.547925 -7.14189434
662 1 -125.91868591 6.86653185 -8.57310486
663 1 -125.91868591 6.86653185 -5.72204542
664 1 -123.44867706 6.87087965 -7.14797401
665 1 -128.38970947 6.85944414 -7.14718437
666 1 -129.21762085 9.17607784 -8.57813263
667 1 -129.21762085 9.17607784 -5.72707224
668 1 -126.74660492 9.18470669 -7.15309286
669 1 -131.68763733 9.16399956 -7.15212154
670 1 -132.5115509 11.48230171 -8.58283615
671 1 -132.5115509 11.48230171 -5.73177624
672 1 -130.0425415 11.49419022 -7.15787315
673 1 -134.97857666 11.4681139 -7.15675402
674 2 -135.79949951 13.78871441 -8.5872345